integrator              = md
dt                      = 0.002
nsteps                  = -1 ; set to 250000000 (500 ns) for a production replica
nstxout-compressed      = 5000
nstxout                 = 0
nstvout                 = 0
nstfout                 = 0
nstcalcenergy           = 100
nstenergy               = 500
nstlog                  = 500
;
cutoff-scheme           = Verlet
nstlist                 = 20
vdwtype                 = Cut-off
vdw-modifier            = Force-switch
rvdw_switch             = 1.0
rvdw                    = 1.2
rlist                   = 1.2
rcoulomb                = 1.2
coulombtype             = PME
;
tcoupl                  = v-rescale
tc_grps                 = SOLU SOLV
tau_t                   = 1.0 1.0
ref_t                   = 303.15 303.15
;
pcoupl                  = C-rescale
pcoupltype              = isotropic
tau_p                   = 2.0
compressibility         = 4.5e-5
ref_p                   = 1.0
refcoord_scaling        = com
;
constraints             = h-bonds
constraint_algorithm    = LINCS
lincs_iter              = 1         ; accuracy of LINCS
lincs_order             = 4         ; also related to accuracy
;
nstcomm                 = 100
comm_mode               = linear
comm_grps               = SOLU SOLV
;
pbc                     = xyz            ; 3D periodic boundary conditions
gen-vel                 = yes
continuation            = no 
gen-seed                = -1
